<?xml version="1.0" encoding="UTF-8"?>

<!-- generated on 2022-03-06 00:12:05 by Eclipse SUMO sumo Version v1_12_0+1067-9f738abf540
<configuration xmlns:xsi="http://www.w3.org/2001/XMLSchema-instance" xsi:noNamespaceSchemaLocation="http://sumo.dlr.de/xsd/sumoConfiguration.xsd">

    <input>
        <net-file value="lucerne-real/osm.net.xml"/>
        <route-files value="lucerne-real/osm_pt.rou.xml,lucerne-real/osm.passenger.trips.xml,lucerne-real/osm.bus.trips.xml"/>
        <additional-files value="lucerne-real/osm.poly.xml,lucerne-real/osm_stops.add.xml"/>
    </input>

    <output>
        <emission-output value="1646521922.7479544_RL_500S_MBQE__emissions.xml"/>
    </output>

    <processing>
        <ignore-route-errors value="true"/>
    </processing>

    <routing>
        <device.rerouting.adaptation-steps value="18"/>
        <device.rerouting.adaptation-interval value="10"/>
    </routing>

    <report>
        <verbose value="true"/>
        <duration-log.statistics value="true"/>
        <no-step-log value="true"/>
    </report>

    <traci_server>
        <remote-port value="36473"/>
    </traci_server>

    <gui_only>
        <gui-settings-file value="lucerne-real/osm.view.xml"/>
    </gui_only>

</configuration>
-->

<emission-export xmlns:xsi="http://www.w3.org/2001/XMLSchema-instance" xsi:noNamespaceSchemaLocation="http://sumo.dlr.de/xsd/emission_file.xsd">
    <timestep time="0.00">
        <vehicle id="bus0" eclass="HBEFA3/Bus" CO2="5286.11" CO="20.17" HC="4.85" NOx="60.75" PMx="2.01" fuel="2.25" electricity="0.00" noise="67.11" route="!bus0!var#1" type="bus_bus" waiting="0.00" lane="-37389755#2_0" pos="12.10" speed="0.00" angle="280.76" x="4584.45" y="1603.24"/>
        <vehicle id="pt_bus_N33:0.0" eclass="HBEFA3/Bus" CO2="5286.11" CO="20.17" HC="4.85" NOx="60.75" PMx="2.01" fuel="2.25" electricity="0.00" noise="67.11" route="pt_bus_N33:0" type="pt_bus" waiting="0.00" lane="39480378_0" pos="12.10" speed="0.00" angle="239.20" x="3686.57" y="4990.14"/>
        <vehicle id="veh0" eclass="HBEFA3/PC_G_EU4" CO2="2624.72" CO="164.78" HC="0.81" NOx="1.20" PMx="0.07" fuel="1.13" electricity="0.00" noise="55.94" route="!veh0!var#1" type="veh_passenger" waiting="0.00" lane="28007944#4_0" pos="5.10" speed="0.00" angle="43.42" x="5240.62" y="4437.80"/>
    </timestep>
    <timestep time="1.00">
        <vehicle id="bus0" eclass="HBEFA3/Bus" CO2="6350.44" CO="21.09" HC="4.99" NOx="67.73" PMx="2.11" fuel="2.71" electricity="0.00" noise="70.86" route="!bus0!var#1" type="bus_bus" waiting="0.00" lane="-37389755#2_0" pos="12.73" speed="0.63" angle="280.76" x="4583.84" y="1603.36"/>
        <vehicle id="pt_bus_N33:0.0" eclass="HBEFA3/Bus" CO2="6662.00" CO="21.40" HC="5.03" NOx="69.85" PMx="2.15" fuel="2.84" electricity="0.00" noise="71.48" route="pt_bus_N33:0" type="pt_bus" waiting="0.00" lane="39480378_0" pos="12.83" speed="0.73" angle="239.20" x="3685.94" y="4989.77"/>
        <vehicle id="veh0" eclass="HBEFA3/PC_G_EU4" CO2="3220.52" CO="147.38" HC="0.75" NOx="1.44" PMx="0.07" fuel="1.38" electricity="0.00" noise="64.31" route="!veh0!var#1" type="veh_passenger" waiting="0.00" lane="28007944#4_0" pos="6.85" speed="1.75" angle="43.42" x="5241.82" y="4439.08"/>
        <vehicle id="veh1" eclass="HBEFA3/PC_G_EU4" CO2="2090.15" CO="41.14" HC="0.23" NOx="0.74" PMx="0.02" fuel="0.90" electricity="0.00" noise="60.21" route="!veh1!var#1" type="veh_passenger" waiting="0.00" lane="-386949447_0" pos="5.10" speed="7.82" angle="89.90" x="6937.46" y="3442.24"/>
    </timestep>
    <timestep time="2.00">
        <vehicle id="bus0" eclass="HBEFA3/Bus" CO2="7698.36" CO="22.31" HC="5.16" NOx="76.66" PMx="2.25" fuel="3.28" electricity="0.00" noise="71.54" route="!bus0!var#1" type="bus_bus" waiting="0.00" lane="-37389755#2_0" pos="14.05" speed="1.32" angle="280.76" x="4582.54" y="1603.60"/>
        <vehicle id="bus1" eclass="HBEFA3/Bus" CO2="5286.11" CO="20.17" HC="4.85" NOx="60.75" PMx="2.01" fuel="2.25" electricity="0.00" noise="67.11" route="!bus1!var#1" type="bus_bus" waiting="0.00" lane="34608027#0_0" pos="12.10" speed="0.00" angle="186.28" x="4003.48" y="4699.92"/>
        <vehicle id="pt_bus_N33:0.0" eclass="HBEFA3/Bus" CO2="9939.63" CO="24.65" HC="5.45" NOx="92.15" PMx="2.51" fuel="4.24" electricity="0.00" noise="74.00" route="pt_bus_N33:0" type="pt_bus" waiting="0.00" lane="39480378_0" pos="14.65" speed="1.83" angle="239.20" x="3684.37" y="4988.83"/>
        <vehicle id="veh0" eclass="HBEFA3/PC_G_EU4" CO2="4072.23" CO="135.53" HC="0.71" NOx="1.79" PMx="0.09" fuel="1.75" electricity="0.00" noise="65.78" route="!veh0!var#1" type="veh_passenger" waiting="0.00" lane="28007944#4_0" pos="10.51" speed="3.66" angle="43.42" x="5244.33" y="4441.73"/>
        <vehicle id="veh1" eclass="HBEFA3/PC_G_EU4" CO2="0.00" CO="0.00" HC="0.00" NOx="0.00" PMx="0.00" fuel="0.00" electricity="0.00" noise="56.72" route="!veh1!var#1" type="veh_passenger" waiting="0.00" lane="-386949447_0" pos="12.03" speed="6.93" angle="89.90" x="6944.39" y="3442.25"/>
        <vehicle id="veh2" eclass="HBEFA3/PC_G_EU4" CO2="2349.93" CO="0.00" HC="0.02" NOx="0.71" PMx="0.01" fuel="1.01" electricity="0.00" noise="64.67" route="!veh2!var#1" type="veh_passenger" waiting="0.00" lane="35086100#0_0" pos="5.10" speed="14.03" angle="7.10" x="882.84" y="920.04"/>
        <vehicle id="veh3" eclass="HBEFA3/PC_G_EU4" CO2="2624.72" CO="164.78" HC="0.81" NOx="1.20" PMx="0.07" fuel="1.13" electricity="0.00" noise="55.94" route="!veh3!var#1" type="veh_passenger" waiting="0.00" lane="52345192#3_0" pos="5.10" speed="0.00" angle="251.07" x="8869.82" y="2136.67"/>
    </timestep>
    <timestep time="3.00">
        <vehicle id="bus0" eclass="HBEFA3/Bus" CO2="8847.50" CO="23.31" HC="5.31" NOx="84.20" PMx="2.37" fuel="3.77" electricity="0.00" noise="71.71" route="!bus0!var#1" type="bus_bus" waiting="0.00" lane="-37389755#2_0" pos="16.04" speed="1.99" angle="280.76" x="4580.58" y="1603.97"/>
        <vehicle id="bus1" eclass="HBEFA3/Bus" CO2="6408.69" CO="21.15" HC="4.99" NOx="68.12" PMx="2.12" fuel="2.73" electricity="0.00" noise="70.98" route="!bus1!var#1" type="bus_bus" waiting="0.00" lane="34608027#0_0" pos="12.75" speed="0.65" angle="187.34" x="4003.31" y="4699.30"/>
        <vehicle id="pt_bus_N33:0.0" eclass="HBEFA3/Bus" CO2="10204.74" CO="24.60" HC="5.48" NOx="93.32" PMx="2.52" fuel="4.35" electricity="0.00" noise="72.37" route="pt_bus_N33:0" type="pt_bus" waiting="0.00" lane="39480378_0" pos="17.22" speed="2.57" angle="239.20" x="3682.16" y="4987.52"/>
        <vehicle id="pt_bus_N33:1.0" eclass="HBEFA3/Bus" CO2="5286.11" CO="20.17" HC="4.85" NOx="60.75" PMx="2.01" fuel="2.25" electricity="0.00" noise="67.11" route="pt_bus_N33:1" type="pt_bus" waiting="0.00" lane="29730545#1_0" pos="12.10" speed="0.00" angle="357.13" x="5245.78" y="2780.27"/>
        <vehicle id="veh0" eclass="HBEFA3/PC_G_EU4" CO2="5268.60" CO="131.43" HC="0.72" NOx="2.30" PMx="0.11" fuel="2.26" electricity="0.00" noise="67.48" route="!veh0!var#1" type="veh_passenger" waiting="0.00" lane="28007944#4_0" pos="16.25" speed="5.75" angle="43.42" x="5248.28" y="4445.91"/>
        <vehicle id="veh1" eclass="HBEFA3/PC_G_EU4" CO2="3720.64" CO="75.58" HC="0.43" NOx="1.51" PMx="0.06" fuel="1.60" electricity="0.00" noise="63.13" route="!veh1!var#1" type="veh_passenger" waiting="0.00" lane="-386949447_0" pos="19.77" speed="7.74" angle="89.90" x="6952.13" y="3442.26"/>
        <vehicle id="veh2" eclass="HBEFA3/PC_G_EU4" CO2="0.00" CO="0.00" HC="0.00" NOx="0.00" PMx="0.00" fuel="0.00" electricity="0.00" noise="64.39" route="!veh2!var#1" type="veh_passenger" waiting="0.00" lane="35086100#1_0" pos="4.25" speed="13.94" angle="7.11" x="884.57" y="933.87"/>
        <vehicle id="veh3" eclass="HBEFA3/PC_G_EU4" CO2="3770.59" CO="149.59" HC="0.77" NOx="1.68" PMx="0.08" fuel="1.62" electricity="0.00" noise="67.05" route="!veh3!var#1" type="veh_passenger" waiting="0.00" lane="52345192#3_0" pos="7.42" speed="2.32" angle="251.07" x="8867.61" y="2135.91"/>
        <vehicle id="veh4" eclass="HBEFA3/PC_G_EU4" CO2="2624.72" CO="164.78" HC="0.81" NOx="1.20" PMx="0.07" fuel="1.13" electricity="0.00" noise="55.94" route="!veh4!var#1" type="veh_passenger" waiting="0.00" lane="-783602104#3_0" pos="5.10" speed="0.00" angle="2.25" x="2894.40" y="1425.62"/>
    </timestep>
    <timestep time="4.00">
        <vehicle id="bus0" eclass="HBEFA3/Bus" CO2="14018.55" CO="28.70" HC="5.98" NOx="119.90" PMx="2.97" fuel="5.98" electricity="0.00" noise="75.19" route="!bus0!var#1" type="bus_bus" waiting="0.00" lane="-37389755#2_0" pos="19.23" speed="3.19" angle="280.76" x="4577.44" y="1604.57"/>
        <vehicle id="bus1" eclass="HBEFA3/Bus" CO2="8899.79" CO="23.57" HC="5.32" NOx="84.97" PMx="2.39" fuel="3.79" electricity="0.00" noise="73.04" route="!bus1!var#1" type="bus_bus" waiting="0.00" lane="34608027#0_0" pos="14.34" speed="1.59" angle="189.93" x="4002.89" y="4697.77"/>
        <vehicle id="bus2" eclass="HBEFA3/Bus" CO2="5286.11" CO="20.17" HC="4.85" NOx="60.75" PMx="2.01" fuel="2.25" electricity="0.00" noise="67.11" route="!bus2!var#1" type="bus_bus" waiting="0.00" lane="50827289#1_0" pos="12.10" speed="0.00" angle="106.38" x="5203.31" y="3782.33"/>
        <vehicle id="pt_bus_N33:0.0" eclass="HBEFA3/Bus" CO2="14100.67" CO="28.59" HC="5.99" NOx="120.08" PMx="2.96" fuel="6.01" electricity="0.00" noise="74.49" route="pt_bus_N33:0" type="pt_bus" waiting="0.00" lane="39480378_0" pos="20.83" speed="3.61" angle="239.20" x="3679.06" y="4985.67"/>
        <vehicle id="pt_bus_N33:1.0" eclass="HBEFA3/Bus" CO2="7316.92" CO="22.07" HC="5.11" NOx="74.34" PMx="2.22" fuel="3.12" electricity="0.00" noise="72.60" route="pt_bus_N33:1" type="pt_bus" waiting="0.00" lane="29730545#1_0" pos="13.01" speed="0.91" angle="354.20" x="5245.33" y="2781.06"/>
        <vehicle id="veh0" eclass="HBEFA3/PC_G_EU4" CO2="5120.33" CO="109.05" HC="0.62" NOx="2.18" PMx="0.10" fuel="2.20" electricity="0.00" noise="66.06" route="!veh0!var#1" type="veh_passenger" waiting="0.00" lane="28007944#4_0" pos="23.58" speed="7.33" angle="44.23" x="5253.37" y="4451.18"/>
        <vehicle id="veh1" eclass="HBEFA3/PC_G_EU4" CO2="0.00" CO="0.00" HC="0.00" NOx="0.00" PMx="0.00" fuel="0.00" electricity="0.00" noise="58.15" route="!veh1!var#1" type="veh_passenger" waiting="0.00" lane="-386949447_0" pos="27.01" speed="7.24" angle="89.90" x="6959.37" y="3442.28"/>
        <vehicle id="veh2" eclass="HBEFA3/PC_G_EU4" CO2="0.00" CO="0.00" HC="0.00" NOx="0.00" PMx="0.00" fuel="0.00" electricity="0.00" noise="64.33" route="!veh2!var#1" type="veh_passenger" waiting="0.00" lane="35086100#1_0" pos="18.10" speed="13.85" angle="7.11" x="886.28" y="947.61"/>
        <vehicle id="veh3" eclass="HBEFA3/PC_G_EU4" CO2="5255.34" CO="143.93" HC="0.78" NOx="2.32" PMx="0.11" fuel="2.26" electricity="0.00" noise="68.69" route="!veh3!var#1" type="veh_passenger" waiting="0.00" lane="52345192#3_0" pos="12.21" speed="4.78" angle="251.07" x="8863.06" y="2134.35"/>
        <vehicle id="veh4" eclass="HBEFA3/PC_G_EU4" CO2="3847.49" CO="150.11" HC="0.77" NOx="1.72" PMx="0.09" fuel="1.65" electricity="0.00" noise="67.37" route="!veh4!var#1" type="veh_passenger" waiting="0.00" lane="-783602104#3_0" pos="7.49" speed="2.39" angle="2.25" x="2894.49" y="1428.00"/>
        <vehicle id="veh5" eclass="HBEFA3/PC_G_EU4" CO2="2172.94" CO="7.12" HC="0.08" NOx="0.68" PMx="0.01" fuel="0.93" electricity="0.00" noise="62.89" route="!veh5!var#1" type="veh_passenger" waiting="0.00" lane="-35286507#4_0" pos="5.10" speed="11.54" angle="149.69" x="5680.74" y="5043.80"/>
        <vehicle id="veh6" eclass="HBEFA3/PC_G_EU4" CO2="2624.72" CO="164.78" HC="0.81" NOx="1.20" PMx="0.07" fuel="1.13" electricity="0.00" noise="55.94" route="!veh6!var#1" type="veh_passenger" waiting="0.00" lane="-134989576#0_0" pos="5.10" speed="0.00" angle="214.74" x="4985.16" y="3702.05"/>
    </timestep>
    <timestep time="5.00">
        <vehicle id="bus0" eclass="HBEFA3/Bus" CO2="14748.72" CO="29.08" HC="6.07" NOx="124.18" PMx="3.02" fuel="6.29" electricity="0.00" noise="74.27" route="!bus0!var#1" type="bus_bus" waiting="0.00" lane=":1485040647_0_0" pos="3.45" speed="4.14" angle="280.60" x="4573.37" y="1605.31"/>
        <vehicle id="bus1" eclass="HBEFA3/Bus" CO2="9836.02" CO="24.28" HC="5.43" NOx="90.90" PMx="2.48" fuel="4.19" electricity="0.00" noise="72.35" route="!bus1!var#1" type="bus_bus" waiting="0.00" lane="34608027#0_0" pos="16.68" speed="2.35" angle="193.73" x="4002.27" y="4695.50"/>
        <vehicle id="bus2" eclass="HBEFA3/Bus" CO2="7311.37" CO="22.06" HC="5.11" NOx="74.30" PMx="2.22" fuel="3.12" electricity="0.00" noise="72.59" route="!bus2!var#1" type="bus_bus" waiting="0.00" lane="50827289#1_0" pos="13.01" speed="0.91" angle="107.77" x="5204.11" y="3781.89"/>
        <vehicle id="pt_bus_N33:0.0" eclass="HBEFA3/Bus" CO2="16450.14" CO="30.81" HC="6.29" NOx="135.84" PMx="3.21" fuel="7.01" electricity="0.00" noise="74.90" route="pt_bus_N33:0" type="pt_bus" waiting="0.00" lane="39480378_0" pos="25.46" speed="4.63" angle="239.20" x="3675.09" y="4983.30"/>
        <vehicle id="pt_bus_N33:1.0" eclass="HBEFA3/Bus" CO2="9940.51" CO="24.60" HC="5.45" NOx="92.05" PMx="2.51" fuel="4.24" electricity="0.00" noise="73.61" route="pt_bus_N33:1" type="pt_bus" waiting="0.00" lane="29730545#1_0" pos="14.95" speed="1.93" angle="347.94" x="5244.37" y="2782.74"/>
        <vehicle id="veh0" eclass="HBEFA3/PC_G_EU4" CO2="3094.97" CO="61.76" HC="0.35" NOx="1.22" PMx="0.04" fuel="1.33" electricity="0.00" noise="61.97" route="!veh0!var#1" type="veh_passenger" waiting="0.00" lane="28007944#4_0" pos="31.41" speed="7.82" angle="51.18" x="5259.46" y="4456.08"/>
        <vehicle id="veh1" eclass="HBEFA3/PC_G_EU4" CO2="0.00" CO="0.00" HC="0.00" NOx="0.00" PMx="0.00" fuel="0.00" electricity="0.00" noise="52.08" route="!veh1!var#1" type="veh_passenger" waiting="0.00" lane="-386949447_0" pos="32.27" speed="5.26" angle="89.90" x="6964.63" y="3442.28"/>
        <vehicle id="veh2" eclass="HBEFA3/PC_G_EU4" CO2="0.00" CO="0.00" HC="0.00" NOx="0.00" PMx="0.00" fuel="0.00" electricity="0.00" noise="62.02" route="!veh2!var#1" type="veh_passenger" waiting="0.00" lane="35086100#1_0" pos="30.99" speed="12.89" angle="10.48" x="888.58" y="960.30"/>
        <vehicle id="veh3" eclass="HBEFA3/PC_G_EU4" CO2="5042.82" CO="117.19" HC="0.65" NOx="2.17" PMx="0.10" fuel="2.17" electricity="0.00" noise="66.27" route="!veh3!var#1" type="veh_passenger" waiting="0.00" lane="52345192#3_0" pos="18.72" speed="6.51" angle="251.07" x="8856.87" y="2132.23"/>
        <vehicle id="veh4" eclass="HBEFA3/PC_G_EU4" CO2="3554.12" CO="123.79" HC="0.65" NOx="1.54" PMx="0.07" fuel="1.53" electricity="0.00" noise="63.35" route="!veh4!var#1" type="veh_passenger" waiting="0.00" lane="-783602104#3_0" pos="11.22" speed="3.73" angle="8.00" x="2895.14" y="1431.68"/>
        <vehicle id="veh5" eclass="HBEFA3/PC_G_EU4" CO2="0.00" CO="0.00" HC="0.00" NOx="0.00" PMx="0.00" fuel="0.00" electricity="0.00" noise="60.29" route="!veh5!var#1" type="veh_passenger" waiting="0.00" lane="-35286507#4_0" pos="15.80" speed="10.70" angle="149.69" x="5686.14" y="5034.56"/>
        <vehicle id="veh6" eclass="HBEFA3/PC_G_EU4" CO2="3969.80" CO="151.01" HC="0.78" NOx="1.77" PMx="0.09" fuel="1.71" electricity="0.00" noise="67.87" route="!veh6!var#1" type="veh_passenger" waiting="0.00" lane="-134989576#0_0" pos="7.59" speed="2.49" angle="214.74" x="4983.74" y="3700.00"/>
        <vehicle id="veh7" eclass="HBEFA3/PC_G_EU4" CO2="2624.72" CO="164.78" HC="0.81" NOx="1.20" PMx="0.07" fuel="1.13" electricity="0.00" noise="55.94" route="!veh7!var#1" type="veh_passenger" waiting="0.00" lane="28123918#1_0" pos="5.10" speed="0.00" angle="256.25" x="2652.35" y="1387.21"/>
    </timestep>
    <timestep time="6.00">
        <vehicle id="bus0" eclass="HBEFA3/Bus" CO2="13225.27" CO="27.02" HC="5.87" NOx="112.72" PMx="2.81" fuel="5.64" electricity="0.00" noise="72.73" route="!bus0!var#1" type="bus_bus" waiting="0.00" lane=":1485040647_0_0" pos="8.20" speed="4.75" angle="280.38" x="4568.69" y="1606.15"/>
        <vehicle id="bus1" eclass="HBEFA3/Bus" CO2="13161.63" CO="27.64" HC="5.86" NOx="113.65" PMx="2.86" fuel="5.61" electricity="0.00" noise="74.11" route="!bus1!var#1" type="bus_bus" waiting="0.00" lane="34608027#0_0" pos="20.02" speed="3.34" angle="195.33" x="4001.39" y="4692.29"/>
        <vehicle id="bus2" eclass="HBEFA3/Bus" CO2="8635.10" CO="23.21" HC="5.28" NOx="82.98" PMx="2.36" fuel="3.68" electricity="0.00" noise="72.17" route="!bus2!var#1" type="bus_bus" waiting="0.00" lane="50827289#1_0" pos="14.71" speed="1.69" angle="110.36" x="5205.59" y="3781.07"/>
        <vehicle id="bus3" eclass="HBEFA3/Bus" CO2="5286.11" CO="20.17" HC="4.85" NOx="60.75" PMx="2.01" fuel="2.25" electricity="0.00" noise="67.11" route="!bus3!var#1" type="bus_bus" waiting="0.00" lane="-705286357_0" pos="12.10" speed="0.00" angle="120.84" x="6456.56" y="1089.93"/>
        <vehicle id="pt_bus_30:0.0" eclass="HBEFA3/Bus" CO2="5286.11" CO="20.17" HC="4.85" NOx="60.75" PMx="2.01" fuel="2.25" electricity="0.00" noise="67.11" route="pt_bus_30:0" type="pt_bus" waiting="0.00" lane="-97686493_0" pos="12.10" speed="0.00" angle="210.81" x="936.04" y="3283.08"/>
        <vehicle id="pt_bus_N33:0.0" eclass="HBEFA3/Bus" CO2="18528.10" CO="32.72" HC="6.56" NOx="149.69" PMx="3.43" fuel="7.90" electricity="0.00" noise="75.25" route="pt_bus_N33:0" type="pt_bus" waiting="0.00" lane="39480378_0" pos="31.08" speed="5.62" angle="239.20" x="3670.26" y="4980.42"/>
        <vehicle id="pt_bus_N33:1.0" eclass="HBEFA3/Bus" CO2="9569.65" CO="23.87" HC="5.40" NOx="88.81" PMx="2.44" fuel="4.08" electricity="0.00" noise="71.65" route="pt_bus_N33:1" type="pt_bus" waiting="0.00" lane="29730545#1_0" pos="17.50" speed="2.55" angle="339.74" x="5243.10" y="2784.95"/>
        <vehicle id="veh0" eclass="HBEFA3/PC_G_EU4" CO2="3161.58" CO="57.72" HC="0.33" NOx="1.23" PMx="0.04" fuel="1.36" electricity="0.00" noise="62.29" route="!veh0!var#1" type="veh_passenger" waiting="0.00" lane="28007944#4_0" pos="39.72" speed="8.32" angle="51.18" x="5265.95" y="4461.30"/>
        <vehicle id="veh1" eclass="HBEFA3/PC_G_EU4" CO2="4856.67" CO="109.71" HC="0.61" NOx="2.07" PMx="0.09" fuel="2.09" electricity="0.00" noise="65.67" route="!veh1!var#1" type="veh_passenger" waiting="0.00" lane=":1583427430_6_0" pos="3.35" speed="6.81" angle="92.95" x="6971.43" y="3442.03"/>
        <vehicle id="veh2" eclass="HBEFA3/PC_G_EU4" CO2="5854.12" CO="66.51" HC="0.44" NOx="2.36" PMx="0.10" fuel="2.52" electricity="0.00" noise="67.31" route="!veh2!var#1" type="veh_passenger" waiting="0.00" lane="35086100#1_0" pos="44.86" speed="13.86" angle="10.48" x="891.10" y="973.93"/>
        <vehicle id="veh3" eclass="HBEFA3/PC_G_EU4" CO2="5968.58" CO="115.66" HC="0.67" NOx="2.56" PMx="0.12" fuel="2.57" electricity="0.00" noise="67.42" route="!veh3!var#1" type="veh_passenger" waiting="0.00" lane="52345192#3_0" pos="27.02" speed="8.30" angle="245.09" x="8849.29" y="2128.73"/>
        <vehicle id="veh4" eclass="HBEFA3/PC_G_EU4" CO2="4717.93" CO="123.07" HC="0.67" NOx="2.04" PMx="0.09" fuel="2.03" electricity="0.00" noise="66.07" route="!veh4!var#1" type="veh_passenger" waiting="0.00" lane="-783602104#3_0" pos="16.74" speed="5.52" angle="10.25" x="2896.12" y="1437.11"/>
        <vehicle id="veh5" eclass="HBEFA3/PC_G_EU4" CO2="3497.42" CO="37.53" HC="0.25" NOx="1.32" PMx="0.05" fuel="1.50" electricity="0.00" noise="63.99" route="!veh5!var#1" type="veh_passenger" waiting="0.00" lane="-35286507#4_0" pos="26.96" speed="11.16" angle="149.69" x="5691.77" y="5024.93"/>
        <vehicle id="veh6" eclass="HBEFA3/PC_G_EU4" CO2="4373.14" CO="131.27" HC="0.70" NOx="1.91" PMx="0.09" fuel="1.88" electricity="0.00" noise="66.04" route="!veh6!var#1" type="veh_passenger" waiting="0.00" lane="-134989576#0_0" pos="11.98" speed="4.39" angle="214.74" x="4981.24" y="3696.39"/>
        <vehicle id="veh7" eclass="HBEFA3/PC_G_EU4" CO2="3533.94" CO="148.26" HC="0.76" NOx="1.58" PMx="0.08" fuel="1.52" electricity="0.00" noise="65.97" route="!veh7!var#1" type="veh_passenger" waiting="0.00" lane="28123918#1_0" pos="7.20" speed="2.10" angle="256.25" x="2650.31" y="1386.71"/>
        <vehicle id="veh8" eclass="HBEFA3/PC_G_EU4" CO2="2266.67" CO="0.00" HC="0.04" NOx="0.69" PMx="0.01" fuel="0.97" electricity="0.00" noise="63.96" route="!veh8!var#1" type="veh_passenger" waiting="0.00" lane="-35286572#3_0" pos="5.10" speed="13.03" angle="240.52" x="8937.62" y="4567.16"/>
        <vehicle id="veh9" eclass="HBEFA3/PC_G_EU4" CO2="2624.72" CO="164.78" HC="0.81" NOx="1.20" PMx="0.07" fuel="1.13" electricity="0.00" noise="55.94" route="!veh9!var#1" type="veh_passenger" waiting="0.00" lane="39074757#0_0" pos="0.17" speed="0.00" angle="227.70" x="808.99" y="3298.55"/>
    </timestep>
    <timestep time="7.00">
        <vehicle id="bus0" eclass="HBEFA3/Bus" CO2="20944.32" CO="35.37" HC="6.87" NOx="166.64" PMx="3.72" fuel="8.93" electricity="0.00" noise="76.29" route="!bus0!var#1" type="bus_bus" waiting="0.00" lane=":1485040647_0_0" pos="14.11" speed="5.91" angle="280.20" x="4562.88" y="1607.20"/>
        <vehicle id="bus1" eclass="HBEFA3/Bus" CO2="16613.50" CO="31.09" HC="6.31" NOx="137.19" PMx="3.24" fuel="7.08" electricity="0.00" noise="75.24" route="!bus1!var#1" type="bus_bus" waiting="0.00" lane="34608027#0_0" pos="24.46" speed="4.44" angle="195.33" x="4000.22" y="4688.01"/>
        <vehicle id="bus2" eclass="HBEFA3/Bus" CO2="9155.51" CO="23.51" HC="5.35" NOx="86.09" PMx="2.40" fuel="3.90" electricity="0.00" noise="71.52" route="!bus2!var#1" type="bus_bus" waiting="0.00" lane="50827289#1_0" pos="17.01" speed="2.31" angle="112.98" x="5207.61" y="3779.95"/>
        <vehicle id="bus3" eclass="HBEFA3/Bus" CO2="7457.60" CO="22.21" HC="5.13" NOx="75.31" PMx="2.24" fuel="3.18" electricity="0.00" noise="72.81" route="!bus3!var#1" type="bus_bus" waiting="0.00" lane="-705286357_0" pos="13.05" speed="0.95" angle="120.84" x="6457.37" y="1089.44"/>
        <vehicle id="pt_bus_30:0.0" eclass="HBEFA3/Bus" CO2="8394.10" CO="23.19" HC="5.25" NOx="81.78" PMx="2.35" fuel="3.58" electricity="0.00" noise="74.10" route="pt_bus_30:0" type="pt_bus" waiting="0.00" lane="-97686493_0" pos="13.26" speed="1.16" angle="211.19" x="935.41" y="3282.10"/>
        <vehicle id="pt_bus_N33:0.0" eclass="HBEFA3/Bus" CO2="17135.87" CO="30.76" HC="6.37" NOx="139.06" PMx="3.23" fuel="7.31" electricity="0.00" noise="74.19" route="pt_bus_N33:0" type="pt_bus" waiting="0.00" lane="39480378_0" pos="37.42" speed="6.34" angle="239.20" x="3664.81" y="4977.18"/>
        <vehicle id="pt_bus_N33:1.0" eclass="HBEFA3/Bus" CO2="12316.64" CO="26.64" HC="5.75" NOx="107.58" PMx="2.75" fuel="5.25" electricity="0.00" noise="73.27" route="pt_bus_N33:1" type="pt_bus" waiting="0.00" lane="29730545#1_0" pos="20.88" speed="3.38" angle="330.18" x="5241.42" y="2787.89"/>
        <vehicle id="veh0" eclass="HBEFA3/PC_G_EU4" CO2="0.00" CO="0.00" HC="0.00" NOx="0.00" PMx="0.00" fuel="0.00" electricity="0.00" noise="59.20" route="!veh0!var#1" type="veh_passenger" waiting="0.00" lane="28007944#4_0" pos="47.69" speed="7.97" angle="58.06" x="5272.65" y="4465.60"/>
        <vehicle id="veh1" eclass="HBEFA3/PC_G_EU4" CO2="0.00" CO="0.00" HC="0.00" NOx="0.00" PMx="0.00" fuel="0.00" electricity="0.00" noise="58.43" route="!veh1!var#1" type="veh_passenger" waiting="0.00" lane=":1583427430_6_0" pos="9.91" speed="6.56" angle="105.88" x="6977.76" y="3440.35"/>
        <vehicle id="veh10" eclass="HBEFA3/PC_G_EU4" CO2="2624.72" CO="164.78" HC="0.81" NOx="1.20" PMx="0.07" fuel="1.13" electricity="0.00" noise="55.94" route="!veh10!var#1" type="veh_passenger" waiting="0.00" lane="39074728#1_0" pos="5.10" speed="0.00" angle="325.17" x="876.68" y="2606.39"/>
        <vehicle id="veh2" eclass="HBEFA3/PC_G_EU4" CO2="0.00" CO="0.00" HC="0.00" NOx="0.00" PMx="0.00" fuel="0.00" electricity="0.00" noise="63.67" route="!veh2!var#1" type="veh_passenger" waiting="0.00" lane="35086100#1_0" pos="58.41" speed="13.56" angle="14.66" x="894.27" y="987.11"/>
        <vehicle id="veh3" eclass="HBEFA3/PC_G_EU4" CO2="6504.63" CO="109.77" HC="0.65" NOx="2.77" PMx="0.13" fuel="2.80" electricity="0.00" noise="67.82" route="!veh3!var#1" type="veh_passenger" waiting="0.00" lane="52345192#3_0" pos="37.01" speed="9.99" angle="245.09" x="8840.18" y="2124.50"/>
        <vehicle id="veh4" eclass="HBEFA3/PC_G_EU4" CO2="6247.60" CO="129.03" HC="0.74" NOx="2.71" PMx="0.13" fuel="2.69" electricity="0.00" noise="68.36" route="!veh4!var#1" type="veh_passenger" waiting="0.00" lane="-783602104#3_0" pos="24.35" speed="7.61" angle="10.25" x="2897.47" y="1444.60"/>
        <vehicle id="veh5" eclass="HBEFA3/PC_G_EU4" CO2="0.00" CO="0.00" HC="0.00" NOx="0.00" PMx="0.00" fuel="0.00" electricity="0.00" noise="60.87" route="!veh5!var#1" type="veh_passenger" waiting="0.00" lane="-35286507#4_0" pos="37.58" speed="10.62" angle="146.20" x="5697.36" y="5015.96"/>
        <vehicle id="veh6" eclass="HBEFA3/PC_G_EU4" CO2="0.00" CO="0.00" HC="0.00" NOx="0.00" PMx="0.00" fuel="0.00" electricity="0.00" noise="55.09" route="!veh6!var#1" type="veh_passenger" waiting="0.00" lane=":562623170_1_0" pos="3.77" speed="3.77" angle="161.10" x="4983.03" y="3694.24"/>
        <vehicle id="veh7" eclass="HBEFA3/PC_G_EU4" CO2="3812.98" CO="129.39" HC="0.68" NOx="1.66" PMx="0.08" fuel="1.64" electricity="0.00" noise="64.53" route="!veh7!var#1" type="veh_passenger" waiting="0.00" lane="28123918#1_0" pos="10.91" speed="3.71" angle="256.25" x="2646.71" y="1385.83"/>
        <vehicle id="veh8" eclass="HBEFA3/PC_G_EU4" CO2="0.00" CO="0.00" HC="0.00" NOx="0.00" PMx="0.00" fuel="0.00" electricity="0.00" noise="62.27" route="!veh8!var#1" type="veh_passenger" waiting="0.00" lane="-35286572#3_0" pos="17.55" speed="12.45" angle="266.09" x="8925.90" y="4563.97"/>
        <vehicle id="veh9" eclass="HBEFA3/PC_G_EU4" CO2="3061.72" CO="147.54" HC="0.74" NOx="1.37" PMx="0.07" fuel="1.32" electricity="0.00" noise="63.30" route="!veh9!var#1" type="veh_passenger" waiting="0.00" lane=":466486027_17_0" pos="0.10" speed="1.54" angle="210.60" x="808.98" y="3297.02"/>
    </timestep>
    <timestep time="8.00">
        <vehicle id="bus0" eclass="HBEFA3/Bus" CO2="22372.67" CO="36.51" HC="7.05" NOx="175.80" PMx="3.86" fuel="9.54" electricity="0.00" noise="76.27" route="!bus0!var#1" type="bus_bus" waiting="0.00" lane="-37389755#1_0" pos="6.38" speed="6.95" angle="279.95" x="4556.02" y="1608.38"/>
        <vehicle id="bus1" eclass="HBEFA3/Bus" CO2="15721.69" CO="29.67" HC="6.19" NOx="130.06" PMx="3.10" fuel="6.70" electricity="0.00" noise="73.96" route="!bus1!var#1" type="bus_bus" waiting="0.00" lane="34608027#0_0" pos="29.69" speed="5.23" angle="195.33" x="3998.83" y="4682.97"/>
        <vehicle id="bus2" eclass="HBEFA3/Bus" CO2="14508.37" CO="29.13" HC="6.04" NOx="123.13" PMx="3.02" fuel="6.19" electricity="0.00" noise="75.10" route="!bus2!var#1" type="bus_bus" waiting="0.00" lane="50827289#1_0" pos="20.48" speed="3.47" angle="116.04" x="5210.65" y="3778.28"/>
        <vehicle id="bus3" eclass="HBEFA3/Bus" CO2="9121.40" CO="23.72" HC="5.34" NOx="86.33" PMx="2.41" fuel="3.89" electricity="0.00" noise="72.67" route="!bus3!var#1" type="bus_bus" waiting="0.00" lane="-705286357_0" pos="14.86" speed="1.81" angle="120.84" x="6458.93" y="1088.51"/>
        <vehicle id="bus4" eclass="HBEFA3/Bus" CO2="13284.44" CO="22.62" HC="5.83" NOx="104.23" PMx="2.47" fuel="5.67" electricity="0.00" noise="75.64" route="!bus4!var#1" type="bus_bus" waiting="0.00" lane="-35086089#2_0" pos="12.10" speed="13.89" angle="16.65" x="1343.57" y="842.56"/>
        <vehicle id="pt_bus_30:0.0" eclass="HBEFA3/Bus" CO2="8978.88" CO="23.50" HC="5.32" NOx="85.21" PMx="2.39" fuel="3.83" electricity="0.00" noise="72.12" route="pt_bus_30:0" type="pt_bus" waiting="0.00" lane="-97686493_0" pos="15.18" speed="1.92" angle="211.81" x="934.38" y="3280.48"/>
        <vehicle id="pt_bus_N33:0.0" eclass="HBEFA3/Bus" CO2="19502.89" CO="33.11" HC="6.68" NOx="155.17" PMx="3.50" fuel="8.32" electricity="0.00" noise="75.01" route="pt_bus_N33:0" type="pt_bus" waiting="0.00" lane="39480378_0" pos="44.55" speed="7.13" angle="239.20" x="3658.69" y="4973.53"/>
        <vehicle id="pt_bus_N33:1.0" eclass="HBEFA3/Bus" CO2="12458.97" CO="26.48" HC="5.77" NOx="107.95" PMx="2.74" fuel="5.31" electricity="0.00" noise="72.67" route="pt_bus_N33:1" type="pt_bus" waiting="0.00" lane="29730545#1_0" pos="24.93" speed="4.05" angle="330.21" x="5239.41" y="2791.40"/>
        <vehicle id="veh0" eclass="HBEFA3/PC_G_EU4" CO2="2837.71" CO="51.07" HC="0.30" NOx="1.08" PMx="0.04" fuel="1.22" electricity="0.00" noise="61.75" route="!veh0!var#1" type="veh_passenger" waiting="0.00" lane="28007944#4_0" pos="56.01" speed="8.32" angle="60.29" x="5279.80" y="4469.82"/>
        <vehicle id="veh1" eclass="HBEFA3/PC_G_EU4" CO2="2557.32" CO="62.37" HC="0.34" NOx="0.99" PMx="0.03" fuel="1.10" electricity="0.00" noise="60.45" route="!veh1!var#1" type="veh_passenger" waiting="0.00" lane="144845146#1_0" pos="2.44" speed="6.81" angle="110.92" x="6984.13" y="3437.96"/>
        <vehicle id="veh10" eclass="HBEFA3/PC_G_EU4" CO2="4017.49" CO="151.38" HC="0.78" NOx="1.79" PMx="0.09" fuel="1.73" electricity="0.00" noise="68.06" route="!veh10!var#1" type="veh_passenger" waiting="0.00" lane="39074728#1_0" pos="7.63" speed="2.53" angle="325.17" x="875.23" y="2608.46"/>
        <vehicle id="veh11" eclass="HBEFA3/PC_G_EU4" CO2="2089.21" CO="33.18" HC="0.20" NOx="0.72" PMx="0.02" fuel="0.90" electricity="0.00" noise="60.73" route="!veh11!var#1" type="veh_passenger" waiting="0.00" lane="-441789616#3_0" pos="5.10" speed="8.55" angle="38.93" x="719.98" y="3030.01"/>
        <vehicle id="veh12" eclass="HBEFA3/PC_G_EU4" CO2="2624.72" CO="164.78" HC="0.81" NOx="1.20" PMx="0.07" fuel="1.13" electricity="0.00" noise="55.94" route="!veh12!var#1" type="veh_passenger" waiting="0.00" lane="923125109_1" pos="5.10" speed="0.00" angle="254.10" x="3925.63" y="1656.91"/>