<?xml version="1.0" encoding="UTF-8"?>

<!-- generated on 2022-03-06 12:42:12 by Eclipse SUMO sumo Version 1.12.0
<configuration xmlns:xsi="http://www.w3.org/2001/XMLSchema-instance" xsi:noNamespaceSchemaLocation="http://sumo.dlr.de/xsd/sumoConfiguration.xsd">

    <input>
        <net-file value="C:\Users\simon\Sumo\2022-03-06-12-41-45\osm.net.xml"/>
        <route-files value="C:\Users\simon\Sumo\2022-03-06-12-41-45\trips.trips.xml"/>
        <additional-files value="C:\Users\simon\Sumo\2022-03-06-12-41-45\osm_stops.add.xml"/>
    </input>

    <output>
        <vehroute-output value="C:\Users\simon\Sumo\2022-03-06-12-41-45\vehroutes.xml"/>
        <stop-output value="C:\Users\simon\Sumo\2022-03-06-12-41-45\stopinfos.xml"/>
    </output>

    <time>
        <begin value="0"/>
    </time>

    <processing>
        <ignore-route-errors value="true"/>
    </processing>

    <routing>
        <device.rerouting.adaptation-interval value="0"/>
    </routing>

    <report>
        <aggregate-warnings value="5"/>
        <error-log value="C:\Users\simon\Sumo\2022-03-06-12-41-45\trips.trips.xml.errorlog"/>
        <no-step-log value="true"/>
    </report>

</configuration>
-->

<routes xmlns:xsi="http://www.w3.org/2001/XMLSchema-instance" xsi:noNamespaceSchemaLocation="http://sumo.dlr.de/xsd/routes_file.xsd">
    <vehicle id="19_train_S77:1" type="pt_train" depart="65.00" departLane="0" arrival="136.00">
        <route edges="194672511#1"/>
        <stop busStop="7908898589" duration="30.00"/>
    </vehicle>

    <vehicle id="49_train_S99:0" type="pt_train" depart="189.00" departLane="0" arrival="263.00">
        <route edges="86320760"/>
        <stop busStop="1002463599" duration="30.00"/>
    </vehicle>

    <vehicle id="52_train_S6:1" type="pt_train" depart="204.00" departLane="0" arrival="299.00">
        <route edges="86320371"/>
        <stop busStop="1002465533" duration="30.00"/>
    </vehicle>

    <vehicle id="16_train_IR_70:0" type="pt_train" depart="55.00" departLane="0" arrival="304.00">
        <route edges="-834322750 -86320687 -86320968#1 -115969649#1 -115969649#0 30265506#4 86320913#1 86320913#2 773836910 116828436 87230766 194755454 10853494#1 194755453 87230806#1 96928656 -196352164 -87230813 -197445064 194752642 430415318 194752640"/>
    </vehicle>

    <vehicle id="1_bus_N33:1" type="pt_bus" depart="3.00" departLane="0" arrival="333.00">
        <route edges="-115953540#4 -25640511 134989551#0 179839873#0 94603025 94603075 94603000 94603059 94602900 94602944 94602961#0 94728338 94721111#0 144968178 53620033 44129718 31264893 184818318#0 206490679 120517467#0 39447057#0 96652797#0 305482866#0 134989584#0 134989584#2 121516958#0 452295145 452295147#0 -95094998#1 -179476008#1 -32787503#3 10968765#0 10426676 74320151 298490058 24544092 10306683 42264604"/>
        <stop busStop="-7005106863@10330274" duration="30.00"/>
    </vehicle>

    <vehicle id="18_train_S77:0" type="pt_train" depart="60.00" departLane="0" arrival="370.00">
        <route edges="25921504 25921503 -87230807#1 -194752631 196352165 196352164 -96928655 -96928644 -194755453 -10853494#1 -194755454 -197135813 -116828436 116828438 773836909#0 773836909#1 116828439 194672511#0 194672511#1"/>
        <stop busStop="7908898589" duration="30.00"/>
    </vehicle>

    <vehicle id="0_bus_N33:0" type="pt_bus" depart="0.00" departLane="0" arrival="384.00">
        <route edges="42265219 184750474 24544096 24544097 24544094 24544099 542954995 201725697 420302482#0 43418077#0 32787503#0 179476008#0 95094998#0 134989618 157304012#0 157304012#3 201725669#0 -305482866#3 -96652797#2 -39447057#1 -120517467#2 -206490679 -184818318#1 -444584961#2 35964675#0 35964673 94721113#0 94721113#2 94602911 94602990 94603047 94603062 94603096 94602949 94603009#0 94603009#1 31264906#0 25640511 115953540#0 115953541#0"/>
        <stop busStop="7005106863" duration="30.00"/>
    </vehicle>

    <vehicle id="10_bus_73:1" type="pt_bus" depart="34.00" departLane="0" arrival="442.00">
        <route edges="93752629 94603051 94603086 94603032#0 94602925 94603015 94603025 94603075 94603000 94603059 94602900 94602944 94602961#0 44129709#0 93720113 100873454#0 35857085#0 452510297 94522261 94522275#0 364075852#0 364075852#7 80446532#0 557814529 557814530#1 283174676#0 283174676#1"/>
        <stop busStop="598172359" duration="30.00"/>
        <stop busStop="1165748197" duration="30.00"/>
        <stop busStop="1098133697" duration="30.00"/>
    </vehicle>

    <vehicle id="90_train_S9:0" type="pt_train" depart="384.00" departLane="0" arrival="464.00">
        <route edges="194675922"/>
        <stop busStop="333555694" duration="30.00"/>
    </vehicle>

    <vehicle id="5_train_S3:0" type="pt_train" depart="15.00" departLane="0" arrival="468.00">
        <route edges="-103893220 -27601634#2 -27601634#1 -27601634#0 -135207290 -10853494#1 -194755454 -197135813 -116828436 -773836910 -86320913#2 -86320913#1 -30265506#4 -30265506#3 116828544 773813396 86320760"/>
        <stop busStop="-1398732992" duration="30.00"/>
        <stop busStop="1002463599" duration="30.00"/>
    </vehicle>

    <vehicle id="93_bus_42:1" type="pt_bus" depart="393.00" departLane="0" arrival="538.00">
        <route edges="19803068#0 -39074665#1"/>
        <stop busStop="-7184667178" duration="30.00"/>
    </vehicle>

    <vehicle id="103_train_480:0" type="pt_train" depart="457.00" departLane="0" arrival="551.00">
        <route edges="118745118"/>
        <stop busStop="2051794005" duration="30.00"/>
    </vehicle>

    <vehicle id="92_bus_42:0" type="pt_bus" depart="389.00" departLane="0" arrival="575.00">
        <route edges="-39074665#1 39074665#0 866204097 -866204097 -19803068#1"/>
        <stop busStop="-7184667178" duration="30.00"/>
        <stop busStop="-7184667176" duration="30.00"/>
    </vehicle>

    <vehicle id="94_bus_43:0" type="pt_bus" depart="406.00" departLane="0" arrival="576.00">
        <route edges="19803068#0 -39074665#1"/>
        <stop busStop="-7184667178" duration="30.00"/>
    </vehicle>

    <vehicle id="50_train_S99:1" type="pt_train" depart="214.00" departLane="0" arrival="578.00">
        <route edges="87230791#0 -194752636 -430415323#1 -430415323#0 -87230807#1 -194752631 196352165 196352164 -96928655 -96928644 -194755453 -10853494#1 -194755454 -197135813 -116828436 -773836910 -86320913#2 -86320913#1 -30265506#4 -30265506#3 116828544 773813396 86320760"/>
        <stop busStop="1002463599" duration="30.00"/>
    </vehicle>

    <vehicle id="13_trolleybus_4:0" type="pt_trolleybus" depart="51.00" departLane="0" arrival="595.00">
        <route edges="94727480#0 94721111#0 144968178 53620033 44129718 31264893 184818318#0 206490679 120517467#0 -397546364#2 -772705476 -772705478 -305482859#3 -305482859#1 -305482859#0 4538163#0 305482857 30808996 658509487 305482863 305482879 305647816 305482861#0 305482861#2 305482861#3 305482861#4"/>
        <stop busStop="598172353" duration="30.00"/>
        <stop busStop="-7274331909" duration="30.00"/>
        <stop busStop="-472459433" duration="30.00"/>
        <stop busStop="984024081" duration="30.00"/>
        <stop busStop="1485039575" duration="30.00"/>
    </vehicle>

    <vehicle id="3_bus_1524:0" type="pt_bus" depart="11.00" departLane="0" arrival="615.00">
        <route edges="42265219 184750474 24544096 24544097 24544094 24544099 542954995 201725697 420302482#0 43418077#0 32787503#0 179476008#0 95094998#0 134989618 157304012#0 157304012#3 201725669#0 -305482866#3 -96652797#2 -39447057#1 -120517467#2 -206490679 -184818318#1 -444584961#2 35964675#0 35964673 94721113#0 94721113#2 94602911 94602990 94603047 94603062 94603096 94602949 94603009#0 94603009#1 31264906#0 25640511 115953540#0 115953541#0 29730000#0 29730000#4 -39193487#23 -39193487#22 25640514#1 25640514#2 42029070#4 42029070#6 42369811#0 -305482877#6 -305482877#3 94545457 135207246 20331091#0 20331090 305482853 305482855 164358766 305482854 394162166 394162152 10426675 450022337 -401703302 -746434519#5 -746434519#2 -772496328 51080603#0 10426673 51080602"/>
        <stop busStop="7005106863" duration="30.00"/>
    </vehicle>

    <vehicle id="95_bus_43:1" type="pt_bus" depart="409.00" departLane="0" arrival="615.00">
        <route edges="-39074665#1 39074665#0 866204097 -866204097 -19803068#1"/>
        <stop busStop="-7184667178" duration="30.00"/>
        <stop busStop="-7184667176" duration="30.00"/>
    </vehicle>

    <vehicle id="105_train_IC_21:0" type="pt_train" depart="485.00" departLane="0" arrival="618.00">
        <route edges="118745118"/>
        <stop busStop="2051794005" duration="30.00"/>
    </vehicle>

    <vehicle id="51_train_S6:0" type="pt_train" depart="214.00" departLane="0" arrival="635.00">
        <route edges="25921504 25921503 -87230807#1 -194752631 196352165 196352164 -96928655 -96928644 -194755453 -10853494#1 -194755454 -197135813 -116828436 -773836910 -86320913#2 -86320913#1 -30265506#4 115969649#0 115969649#1 86320968#1 86320687 86320371"/>
        <stop busStop="1002465533" duration="30.00"/>
    </vehicle>

    <vehicle id="20_bus_21:0" type="pt_bus" depart="66.00" departLane="0" arrival="637.00">
        <route edges="-705286368#4 -305482877#6 -305482877#3 94545457 135207246 20331091#0 20331090 305482853 305482855 164358766 305482860#0 305482859#0 305482859#1 305482859#2 305482859#4 772705476 397546364#0 -120517467#2 -206490679 -184818318#1 -444584961#2 35964675#0 35964673 94721113#0 94721113#2 94602911 94602990 94603047 94603062 94603096 94602949 93752643 94602977 94603032#0 94602925 93752650"/>
        <stop busStop="-506671368" duration="30.00"/>
        <stop busStop="472459432" duration="30.00"/>
        <stop busStop="598172366" duration="30.00"/>
    </vehicle>

    <vehicle id="57_train_VAE:0" type="pt_train" depart="228.00" departLane="0" arrival="652.00">
        <route edges="-103893220 -27601634#2 -27601634#1 -27601634#0 -135207290 -10853494#1 -194755454 -197135813 -116828436 116828438 773836909#0 773836909#1 116828439 194672511#0 194672511#1"/>
        <stop busStop="-1398732992" duration="30.00"/>
        <stop busStop="7908898589" duration="30.00"/>
    </vehicle>

    <vehicle id="89_train_S1:1" type="pt_train" depart="383.00" departLane="0" arrival="670.00">
        <route edges="87230791#0 -194752636 -430415323#1 -430415323#0 -87230807#1 -194752631 196352165 196352164 -96928655 -96928644 -194755453 -10853494#1 -194755454 -197135813 -116828436 -773836910 -86320913#2 -86320913#1 -30265506#4 -30265506#3 116828544 773813396 194675922"/>
        <stop busStop="333555694" duration="30.00"/>
    </vehicle>

    <vehicle id="11_trolleybus_5:0" type="pt_trolleybus" depart="38.00" departLane="0" arrival="674.00">
        <route edges="-560703491#2 -560703491#0 -94721106#4 -94721106#2 -94721106#0 -24980031#1 1013074042#0 94721105#4 94721105#5 -43418075#8 -43418075#3 -43418075#1 32846420#0 32846420#1 32846420#3 97664100#0 43418077#0 32787503#0 179476008#0 95094998#0 134989618 157304012#0 157304012#3 201725669#0 397705245#0 8428661#0 8428661#3 8428661#5 386850954#0 10426673 51080602"/>
        <stop busStop="-4441508552" duration="30.00"/>
        <stop busStop="-7276028336" duration="30.00"/>
        <stop busStop="-7276082784" duration="30.00"/>
        <stop busStop="-7276028335" duration="30.00"/>
        <stop busStop="311287459" duration="30.00"/>
        <stop busStop="1096064553" duration="30.00"/>
        <stop busStop="28197903" duration="30.00"/>
        <stop busStop="598172345" duration="30.00"/>
        <stop busStop="598172343" duration="30.00"/>
    </vehicle>

    <vehicle id="107_train_IC_21:1" type="pt_train" depart="555.00" departLane="0" arrival="685.00">
        <route edges="118745118"/>
        <stop busStop="2051794005" duration="30.00"/>
    </vehicle>

    <vehicle id="64_trolleybus_4:1" type="pt_trolleybus" depart="275.00" departLane="0" arrival="796.00">
        <route edges="-305482861#2 -305482861#1 305482878 305482877#0 -305482877#3 94545457 135207246 20331091#0 20331090 305482853 305482855 164358766 305482860#0 305482859#0 305482859#1 305482859#2 305482859#4 772705476 397546364#0 -120517467#2 -206490679 -184818318#1 -444584961#2 35964675#0 94727480#0"/>
        <stop busStop="-7274331913" duration="30.00"/>
        <stop busStop="3715907112" duration="30.00"/>
        <stop busStop="472459432" duration="30.00"/>
        <stop busStop="598172353" duration="30.00"/>
    </vehicle>

    <vehicle id="42_trolleybus_1:0" type="pt_trolleybus" depart="160.00" departLane="0" arrival="798.00">
        <route edges="93752636 94603086 94603032#0 94602925 94603015 94603025 94603075 94603000 94603059 94602900 94602944 94602961#0 44129709#0 93720113 100873454#0 35857085#0 452510297 94522272#0 134989578#0 94545447#1 712687104#0 712687104#1 712687104#2 712687104#3 22384595#0 22384595#2 22384595#4 22384595#5 22384595#6 22384595#7 22384595#8 93720122#0 -330757768#7 -330757768#3"/>
        <stop busStop="598172362" duration="30.00"/>
        <stop busStop="1165748197" duration="30.00"/>
        <stop busStop="1483240184" duration="30.00"/>
        <stop busStop="308240450" duration="30.00"/>
        <stop busStop="7274196194" duration="30.00"/>
        <stop busStop="-7248262541" duration="30.00"/>
        <stop busStop="-7248262545" duration="30.00"/>
        <stop busStop="-1485039517" duration="30.00"/>
    </vehicle>

    <vehicle id="91_train_S9:1" type="pt_train" depart="416.00" departLane="0" arrival="800.00">
        <route edges="87230791#0 -194752636 -430415323#1 -430415323#0 -87230807#1 -194752631 196352165 196352164 -96928655 -96928644 -194755453 -10853494#1 -194755454 -197135813 -116828436 -773836910 -86320913#2 -86320913#1 -30265506#4 -30265506#3 116828544 773813396 194675922"/>
        <stop busStop="333555694" duration="30.00"/>
    </vehicle>

    <vehicle id="39_bus_71:1" type="pt_bus" depart="158.00" departLane="0" arrival="832.00">
        <route edges="-51080602 -10426673 -386850954#2 -8428661#7 -8428661#4 -8428661#1 -397705250 -305482866#3 -96652797#2 -39447057#1 -120517467#2 -206490679 -184818318#1 -444584961#2 35964675#0 35964673 94721113#0 94721113#2 94602911 94602990 94603047 94603062 94603096 94602949 93752643 94602977 94603032#0 93752627 94603021 93752631"/>
        <stop busStop="-260019054" duration="30.00"/>
        <stop busStop="598172365" duration="30.00"/>
    </vehicle>

    <vehicle id="45_bus_73:4" type="pt_bus" depart="173.00" departLane="0" arrival="846.00">
        <route edges="93752629 94603051 94603086 94603032#0 94602925 94603015 94603025 94603075 94603000 94603059 94602900 94602944 94602961#0 44129709#0 93720113 100873454#0 35857085#0 452510297 94522261 94522275#0 364075852#0 364075852#7 80446532#0 557814529 557814530#1 283174676#0 283174676#1"/>
        <stop busStop="598172359" duration="30.00"/>
        <stop busStop="1165748197" duration="30.00"/>
        <stop busStop="1098133697" duration="30.00"/>
    </vehicle>

    <vehicle id="111_train_IR_27:1" type="pt_train" depart="759.00" departLane="0" arrival="853.00">
        <route edges="118745118"/>
        <stop busStop="2051794005" duration="30.00"/>
    </vehicle>

    <vehicle id="17_bus_72:0" type="pt_bus" depart="58.00" departLane="0" arrival="877.00">
        <route edges="93752640 94603000 94603059 94602900 94602944 94602961#0 94728338 94721111#0 144968178 53620033 44129718 31264893 184818318#0 206490679 120517467#0 39447057#0 96652797#0 305482866#0 134989584#0 134989584#2 121516958#0 452295145 452295147#0 -95094998#1 -179476008#1 -32787503#3 10968767#0 10968767#3 201725670#0 146343279 539627119 33113038 -33113038 -539627105#1 -146343279 32846421#0 74320151 298490058 24544092 10306683 42264604"/>
        <stop busStop="598172367" duration="30.00"/>
        <stop busStop="1483240186" duration="30.00"/>
        <stop busStop="311606382" duration="30.00"/>
    </vehicle>

    <vehicle id="99_train_600:0" type="pt_train" depart="432.00" departLane="0" arrival="906.00">
        <route edges="194752640 -32997881 -430415318 -194752642 197445064 196352165 196352164 -96928655 -96928644 -194755453 -10853494#1 -194755454 -197135813 -116828436 -773836910 -86320913#2 -86320913#1 -30265506#4 115969649#0 115969649#1 86320968#1 86320687 118745118 -834322750 -86320687 -86320968#1 -115969649#1 -115969649#0 30265506#4 86320913#1 86320913#2 773836910 116828436 87230766 194755454 10853494#1 10853494#2 24937540 96928627"/>
        <stop busStop="2051794005" duration="30.00"/>
    </vehicle>

    <vehicle id="112_train_IR_70:1" type="pt_train" depart="787.00" departLane="0" arrival="920.00">
        <route edges="118745118"/>
        <stop busStop="2051794005" duration="30.00"/>
    </vehicle>

    <vehicle id="2_bus_30:0" type="pt_bus" depart="6.00" departLane="0" arrival="963.00">
        <route edges="19803517#0 36723787#0 190192157#1 190192157#5 190192157#8 553460094#0 94721105#5 94721105#1 135572695#0 135572695#2 98947219#0 98947219#1 146343280 24980035 24980036#0 866030035#0 866030035#1 22386331#0 22386331#2 887914950#1 -22385351#6 -22385351#5 -22385351#4 93720121#0 93720121#1 136641146#0 136641146#4 -330757768#7 -330757768#3"/>
        <stop busStop="984024105" duration="30.00"/>
        <stop busStop="311606402" duration="30.00"/>
        <stop busStop="206372728" duration="30.00"/>
        <stop busStop="206372731" duration="30.00"/>
        <stop busStop="426860182" duration="30.00"/>
        <stop busStop="1099877714" duration="30.00"/>
        <stop busStop="1099807926" duration="30.00"/>
        <stop busStop="984024323" duration="30.00"/>
        <stop busStop="1096064551" duration="30.00"/>
        <stop busStop="984024066" duration="30.00"/>
        <stop busStop="-984024117" duration="30.00"/>
        <stop busStop="-7248262541" duration="30.00"/>
        <stop busStop="-7248262545" duration="30.00"/>
        <stop busStop="-1485039517" duration="30.00"/>
    </vehicle>

    <vehicle id="8_bus_30:1" type="pt_bus" depart="27.00" departLane="0" arrival="968.00">
        <route edges="330757768#0 330757768#4 -136641146#5 -136641146#3 93720121#2 22385351#0 22385351#5 22385351#6 -887914950#2 -22386331#5 -22386331#1 -866030035#4 -866030035#0 -24980036#2 -24980035 -146343280 -98947219#1 -98947219#0 -135572695#2 -135572695#1 94721105#2 94721105#3 94721105#4 -553460094#1 -190192157#10 -190192157#7 -190192157#3 -190192157#0 -19803517#2"/>
        <stop busStop="1485039517" duration="30.00"/>
        <stop busStop="7248262544" duration="30.00"/>
        <stop busStop="-1499118015" duration="30.00"/>
        <stop busStop="984024117" duration="30.00"/>
        <stop busStop="-984024066" duration="30.00"/>
        <stop busStop="-206372754" duration="30.00"/>
        <stop busStop="-7248262564" duration="30.00"/>
        <stop busStop="-1099807926" duration="30.00"/>
        <stop busStop="-1099877741" duration="30.00"/>
        <stop busStop="-1099877676" duration="30.00"/>
        <stop busStop="-311606391" duration="30.00"/>
        <stop busStop="-311606396" duration="30.00"/>
        <stop busStop="-206372726" duration="30.00"/>
        <stop busStop="-7248262568" duration="30.00"/>
    </vehicle>

    <vehicle id="29_bus_14:1" type="pt_bus" depart="158.00" departLane="0" arrival="979.00">
        <route edges="94728204 779101386 44129709#0 93720113 100873454#0 35857085#0 452510297 94522272#0 134989578#0 134989556#0 134989556#1 -143232900#5 -143232900#1 -27603102#7 -27603102#6 -27603102#5 -27603102#2 -27603102#0 -27601327#2 -27601327#1 -27582118 27582119#0 27582119#4 622473971 622473970#1 27602528#0 27602528#1 27602527#0 27602527#1 27602527#2"/>
        <stop busStop="6776962333@11820578" duration="30.00"/>
        <stop busStop="1165748197" duration="30.00"/>
        <stop busStop="1483240188" duration="30.00"/>
        <stop busStop="-1483240181" duration="30.00"/>
        <stop busStop="-984023828" duration="30.00"/>
        <stop busStop="-984024126" duration="30.00"/>
        <stop busStop="984023516" duration="30.00"/>
        <stop busStop="984024118" duration="30.00"/>
        <stop busStop="8072044973" duration="30.00"/>
        <stop busStop="8072044974" duration="30.00"/>
        <stop busStop="984739332" duration="30.00"/>
        <stop busStop="303097162" duration="30.00"/>
    </vehicle>

    <vehicle id="114_train_IR_15:1" type="pt_train" depart="854.00" departLane="0" arrival="987.00">
        <route edges="118745118"/>
        <stop busStop="2051794005" duration="30.00"/>
    </vehicle>

    <vehicle id="122_bus_417:0" type="pt_bus" depart="538.00" departLane="0" arrival="1025.00">
        <route edges="-51080602 -10426673 -386850954#2 -8428661#7 -8428661#4 -8428661#1 -397705250 -305482866#3 -96652797#2 -39447057#1 -120517467#2 -206490679 -184818318#1 -444584961#2 35964675#0 35964673 94721113#0 94721113#2 94602911 94602990 94603047 94603062 94603096 94602949 94603009#0 94603009#1 31264906#0 25640511 115953540#0 115953541#0 29730000#0 29730000#4 -39193487#23 -39193487#22 25640514#1 25640514#2 42029070#4 42029070#6 42369811#0 -305482877#6 -305482877#3 94545457 135207246 20331091#0 20331090 305482853 305482855 164358766 305482854 394162166 394162152 10426675 450022337 -401703302 -746434519#5 -746434519#2 -772496328 51080603#0 10426673 51080602"/>
        <stop busStop="7005106863" duration="30.00"/>
    </vehicle>

    <vehicle id="24_bus_20:2" type="pt_bus" depart="139.00" departLane="0" arrival="1077.00">
        <route edges="94602935 94602933 94602961#0 94728338 94721111#0 144968178 53620033 44129718 31264893 184818318#0 206490679 120517467#0 39447057#0 96652797#0 305482866#0 397705245#0 8428661#0 8428661#3 8428661#5 386850954#0 10426673 51080602"/>
        <stop busStop="1098666350" duration="30.00"/>
        <stop busStop="472459430" duration="30.00"/>
        <stop busStop="28197903" duration="30.00"/>
        <stop busStop="598172343" duration="30.00"/>
    </vehicle>

    <vehicle id="116_train_EC_151:0" type="pt_train" depart="522.00" departLane="0" arrival="1078.00">
        <route edges="87230791#0 -194752636 -430415323#1 -430415323#0 -87230807#1 -194752631 196352165 196352164 -96928655 -96928644 -194755453 -10853494#1 -194755454 -197135813 -116828436 -773836910 -86320913#2 -86320913#1 -30265506#4 -30265506#3 -30265506#2 -30265506#1 -641872993#0 86320713 -834322747 641872993#0 30265506#1 30265506#2 30265506#3 30265506#4 86320913#1 86320913#2 773836910 116828436 87230766 194755454 10853494#1 194755453 87230806#1 96928656 -196352164 -87230813 -197445064 194752642 430415318 194752640"/>
        <stop busStop="1002466274" duration="30.00"/>
    </vehicle>

    <vehicle id="88_train_S1:0" type="pt_train" depart="763.00" departLane="0" arrival="1083.00">
        <route edges="118745125 194672510 -86320968#1 -115969649#1 -115969649#0 30265506#4 86320913#1 86320913#2 773836910 116828436 87230766 194755454 10853494#1 194755453 87230806#1 96928656 -196352164 -87230813 194752631 87230807#1 430415323#0 430415323#1 32031419"/>
        <stop busStop="1002465031" duration="30.00"/>
    </vehicle>

    <vehicle id="124_bus_437:0" type="pt_bus" depart="553.00" departLane="0" arrival="1083.00">
        <route edges="-51080602 -10426673 -386850954#2 -8428661#7 -8428661#4 -8428661#1 -397705250 -305482866#3 -96652797#2 -39447057#1 -120517467#2 -206490679 -184818318#1 -444584961#2 35964675#0 35964673 94721113#0 94721113#2 94602911 94602990 94603047 94603062 94603096 94602949 94603009#0 94603009#1 31264906#0 25640511 115953540#0 115953541#0 29730000#0 29730000#4 -39193487#23 -39193487#22 25640514#1 25640514#2 42029070#4 42029070#6 42369811#0 -305482877#6 -305482877#3 94545457 135207246 20331091#0 20331090 305482853 305482855 164358766 305482854 394162166 394162152 10426675 450022337 -401703302 -746434519#5 -746434519#2 -772496328 51080603#0 10426673 51080602"/>
        <stop busStop="7005106863" duration="30.00"/>
    </vehicle>

    <vehicle id="38_bus_71:0" type="pt_bus" depart="158.00" departLane="0" arrival="1086.00">
        <route edges="93752631 94603059 94602900 94602944 94602961#0 94728338 94721111#0 144968178 53620033 44129718 31264893 184818318#0 206490679 120517467#0 39447057#0 96652797#0 305482866#0 397705245#0 8428661#0 8428661#3 8428661#5 386850954#0 10426673 51080602"/>
        <stop busStop="598172365" duration="30.00"/>
        <stop busStop="28197903" duration="30.00"/>
    </vehicle>

    <vehicle id="106_trolleybus_5:1" type="pt_trolleybus" depart="475.00" departLane="0" arrival="1091.00">
        <route edges="-51080602 -10426673 -386850954#2 -8428661#7 -8428661#4 -8428661#1 -397705250 134989584#0 134989584#2 121516958#0 452295145 452295147#0 -95094998#1 -179476008#1 -32787503#3 10968767#0 10968767#3 201725670#0 -539627120#1 43418075#0 43418075#2 43418075#4 94721105#1 94721105#2 1013074041#0 24980031#0 94721106#0 94721106#1 94721106#3 560703491#0 560703491#1"/>
        <stop busStop="-598172343" duration="30.00"/>
        <stop busStop="-598172346" duration="30.00"/>
        <stop busStop="1483240186" duration="30.00"/>
        <stop busStop="-984024152" duration="30.00"/>
        <stop busStop="311606382" duration="30.00"/>
        <stop busStop="311606385" duration="30.00"/>
        <stop busStop="627053218" duration="30.00"/>
    </vehicle>

    <vehicle id="108_train_IR_26:0" type="pt_train" depart="484.00" departLane="0" arrival="1134.00">
        <route edges="87230791#0 -194752636 -430415323#1 -430415323#0 -87230807#1 -194752631 196352165 196352164 -96928655 -96928644 -194755453 -10853494#1 -194755454 -197135813 -116828436 -773836910 -86320913#2 -86320913#1 -30265506#4 115969649#0 115969649#1 86320968#1 86320687 118745118 -834322750 -86320687 -86320968#1 -115969649#1 -115969649#0 30265506#4 86320913#1 86320913#2 773836910 116828436 87230766 194755454 10853494#1 10853494#2"/>
    </vehicle>

    <vehicle id="110_train_IR_27:0" type="pt_train" depart="763.00" departLane="0" arrival="1147.00">
        <route edges="118745107 641872993#0 30265506#1 30265506#2 30265506#3 30265506#4 86320913#1 86320913#2 773836910 116828436 87230766 194755454 10853494#1 194755453 87230806#1 96928656 -196352164 -87230813 194752631 87230807#1 430415323#0 430415323#1 32031419"/>
        <stop busStop="2051794005@7782644" duration="30.00"/>
    </vehicle>

    <vehicle id="78_bus_73:5" type="pt_bus" depart="346.00" departLane="0" arrival="1159.00">
        <route edges="93752629 94603051 94603086 94603032#0 94602925 94603015 94603025 94603075 94603000 94603059 94602900 94602944 94602961#0 44129709#0 93720113 100873454#0 35857085#0 452510297 94522261 94522275#0 364075852#0 364075852#7 80446532#0 557814529 557814530#1 283174676#0 283174676#1"/>
        <stop busStop="598172359" duration="30.00"/>
        <stop busStop="1165748197" duration="30.00"/>
        <stop busStop="1098133697" duration="30.00"/>
    </vehicle>

    <vehicle id="22_bus_20:0" type="pt_bus" depart="93.00" departLane="0" arrival="1161.00">
        <route edges="-51080602 -10426673 -386850954#2 -8428661#7 -8428661#4 -8428661#1 -397705250 -305482866#3 -96652797#2 -39447057#1 -120517467#2 -206490679 -184818318#1 -444584961#2 35964675#0 35964673 94721113#0 94721113#2 94602911 94602990 94603047 94603062 94603096 94602949 93752643 94602977 94603032#0 93752627 94603021 94603039 94603084 94602935"/>
        <stop busStop="-598172343" duration="30.00"/>
        <stop busStop="-260019054" duration="30.00"/>
        <stop busStop="-27329497" duration="30.00"/>
        <stop busStop="1098666350" duration="30.00"/>
    </vehicle>

    <vehicle id="113_train_IR_15:0" type="pt_train" depart="826.00" departLane="0" arrival="1161.00">
        <route edges="118745107 641872993#0 30265506#1 30265506#2 30265506#3 30265506#4 86320913#1 86320913#2 773836910 116828436 87230766 194755454 10853494#1 194755453 87230806#1 96928656 -196352164 -87230813 194752631 87230807#1 430415323#0 430415323#1 32031419"/>
        <stop busStop="2051794005@7782644" duration="30.00"/>
    </vehicle>

    <vehicle id="101_train_VAE:1" type="pt_train" depart="761.00" departLane="0" arrival="1164.00">
        <route edges="-834322754 -194672511#0 -116828439 -773836909#1 -773836909#0 -116828438 116828436 87230766 194755454 10853494#1 10853494#2 19802208 27601634#1 27601634#2 126092202"/>
        <stop busStop="-7908898589" duration="30.00"/>
        <stop busStop="1398733007" duration="30.00"/>
    </vehicle>

    <vehicle id="25_bus_20:3" type="pt_bus" depart="107.00" departLane="0" arrival="1198.00">
        <route edges="-51080602 -10426673 -386850954#2 -8428661#7 -8428661#4 -8428661#1 -397705250 -305482866#3 -96652797#2 -39447057#1 -120517467#2 -206490679 -184818318#1 -444584961#2 35964675#0 35964673 94721113#0 94721113#2 94602911 94602990 94603047 94603062 94603096 94602949 93752643 94602977 94603032#0 93752627 94603021 94603039 94603084 94602935"/>
        <stop busStop="-598172343" duration="30.00"/>
        <stop busStop="-260019054" duration="30.00"/>
        <stop busStop="-27329497" duration="30.00"/>
        <stop busStop="1098666350" duration="30.00"/>
    </vehicle>

    <vehicle id="109_train_IR_26:1" type="pt_train" depart="485.00" departLane="0" arrival="1208.00">
        <route edges="-430415323#1 -430415323#0 -87230807#1 -194752631 196352165 196352164 -96928655 -96928644 -194755453 -10853494#1 -194755454 -197135813 -116828436 -773836910 -86320913#2 -86320913#1 -30265506#4 115969649#0 115969649#1 86320968#1 86320687 118745118 -834322750 -86320687 -86320968#1 -115969649#1 -115969649#0 30265506#4 86320913#1 86320913#2 773836910 116828436 87230766 194755454 10853494#1 194755453 87230806#1 96928656 -196352164 -87230813 -197445064 194752642 430415318 194752640"/>
    </vehicle>

    <vehicle id="21_bus_21:1" type="pt_bus" depart="91.00" departLane="0" arrival="1215.00">